This is the initial atom setup of ././lammps_files/trj5.lmpdata
400 atoms 
2 atom types 
200 ellipsoids
200 bonds 
200 bond types 
0.0 300.0 xlo xhi 
0.0 300.0 ylo yhi 
-15.0 15.0 zlo zhi 

Atoms

1	 1	 10.0	 0.0	 0.001	 1	 6.328426654958672e-05	 0.0	 0	 0	 0	 0.0576	 1 #atom_id|type|x0|y0|z0|e_flag|rho|m|mx|my|mz|chi|trap_id
2	 1	 50.0	 0.0	 0.001	 1	 6.328426654958672e-05	 0.0	 0	 0	 0	 0.0576	 2 #atom_id|type|x0|y0|z0|e_flag|rho|m|mx|my|mz|chi|trap_id
3	 1	 70.0	 0.0	 0.001	 1	 6.328426654958672e-05	 0.0	 0	 0	 0	 0.0576	 3 #atom_id|type|x0|y0|z0|e_flag|rho|m|mx|my|mz|chi|trap_id
4	 1	 100.0	 0.0	 0.001	 1	 6.328426654958672e-05	 0.0	 0	 0	 0	 0.0576	 4 #atom_id|type|x0|y0|z0|e_flag|rho|m|mx|my|mz|chi|trap_id
5	 1	 130.0	 0.0	 0.001	 1	 6.328426654958672e-05	 0.0	 0	 0	 0	 0.0576	 5 #atom_id|type|x0|y0|z0|e_flag|rho|m|mx|my|mz|chi|trap_id
6	 1	 160.0	 0.0	 0.001	 1	 6.328426654958672e-05	 0.0	 0	 0	 0	 0.0576	 6 #atom_id|type|x0|y0|z0|e_flag|rho|m|mx|my|mz|chi|trap_id
7	 1	 200.0	 0.0	 0.001	 1	 6.328426654958672e-05	 0.0	 0	 0	 0	 0.0576	 7 #atom_id|type|x0|y0|z0|e_flag|rho|m|mx|my|mz|chi|trap_id
8	 1	 220.0	 0.0	 0.001	 1	 6.328426654958672e-05	 0.0	 0	 0	 0	 0.0576	 8 #atom_id|type|x0|y0|z0|e_flag|rho|m|mx|my|mz|chi|trap_id
9	 1	 250.0	 0.0	 0.001	 1	 6.328426654958672e-05	 0.0	 0	 0	 0	 0.0576	 9 #atom_id|type|x0|y0|z0|e_flag|rho|m|mx|my|mz|chi|trap_id
10	 1	 280.0	 0.0	 0.001	 1	 6.328426654958672e-05	 0.0	 0	 0	 0	 0.0576	 10 #atom_id|type|x0|y0|z0|e_flag|rho|m|mx|my|mz|chi|trap_id
11	 1	 20.0	 30.0	 0.001	 1	 6.328426654958672e-05	 0.0	 0	 0	 0	 0.0576	 11 #atom_id|type|x0|y0|z0|e_flag|rho|m|mx|my|mz|chi|trap_id
12	 1	 40.0	 30.0	 0.001	 1	 6.328426654958672e-05	 0.0	 0	 0	 0	 0.0576	 12 #atom_id|type|x0|y0|z0|e_flag|rho|m|mx|my|mz|chi|trap_id
13	 1	 80.0	 30.0	 0.001	 1	 6.328426654958672e-05	 0.0	 0	 0	 0	 0.0576	 13 #atom_id|type|x0|y0|z0|e_flag|rho|m|mx|my|mz|chi|trap_id
14	 1	 100.0	 30.0	 0.001	 1	 6.328426654958672e-05	 0.0	 0	 0	 0	 0.0576	 14 #atom_id|type|x0|y0|z0|e_flag|rho|m|mx|my|mz|chi|trap_id
15	 1	 130.0	 30.0	 0.001	 1	 6.328426654958672e-05	 0.0	 0	 0	 0	 0.0576	 15 #atom_id|type|x0|y0|z0|e_flag|rho|m|mx|my|mz|chi|trap_id
16	 1	 170.0	 30.0	 0.001	 1	 6.328426654958672e-05	 0.0	 0	 0	 0	 0.0576	 16 #atom_id|type|x0|y0|z0|e_flag|rho|m|mx|my|mz|chi|trap_id
17	 1	 200.0	 30.0	 0.001	 1	 6.328426654958672e-05	 0.0	 0	 0	 0	 0.0576	 17 #atom_id|type|x0|y0|z0|e_flag|rho|m|mx|my|mz|chi|trap_id
18	 1	 230.0	 30.0	 0.001	 1	 6.328426654958672e-05	 0.0	 0	 0	 0	 0.0576	 18 #atom_id|type|x0|y0|z0|e_flag|rho|m|mx|my|mz|chi|trap_id
19	 1	 250.0	 30.0	 0.001	 1	 6.328426654958672e-05	 0.0	 0	 0	 0	 0.0576	 19 #atom_id|type|x0|y0|z0|e_flag|rho|m|mx|my|mz|chi|trap_id
20	 1	 280.0	 30.0	 0.001	 1	 6.328426654958672e-05	 0.0	 0	 0	 0	 0.0576	 20 #atom_id|type|x0|y0|z0|e_flag|rho|m|mx|my|mz|chi|trap_id
21	 1	 10.0	 60.0	 0.001	 1	 6.328426654958672e-05	 0.0	 0	 0	 0	 0.0576	 21 #atom_id|type|x0|y0|z0|e_flag|rho|m|mx|my|mz|chi|trap_id
22	 1	 40.0	 60.0	 0.001	 1	 6.328426654958672e-05	 0.0	 0	 0	 0	 0.0576	 22 #atom_id|type|x0|y0|z0|e_flag|rho|m|mx|my|mz|chi|trap_id
23	 1	 80.0	 60.0	 0.001	 1	 6.328426654958672e-05	 0.0	 0	 0	 0	 0.0576	 23 #atom_id|type|x0|y0|z0|e_flag|rho|m|mx|my|mz|chi|trap_id
24	 1	 100.0	 60.0	 0.001	 1	 6.328426654958672e-05	 0.0	 0	 0	 0	 0.0576	 24 #atom_id|type|x0|y0|z0|e_flag|rho|m|mx|my|mz|chi|trap_id
25	 1	 130.0	 60.0	 0.001	 1	 6.328426654958672e-05	 0.0	 0	 0	 0	 0.0576	 25 #atom_id|type|x0|y0|z0|e_flag|rho|m|mx|my|mz|chi|trap_id
26	 1	 160.0	 60.0	 0.001	 1	 6.328426654958672e-05	 0.0	 0	 0	 0	 0.0576	 26 #atom_id|type|x0|y0|z0|e_flag|rho|m|mx|my|mz|chi|trap_id
27	 1	 190.0	 60.0	 0.001	 1	 6.328426654958672e-05	 0.0	 0	 0	 0	 0.0576	 27 #atom_id|type|x0|y0|z0|e_flag|rho|m|mx|my|mz|chi|trap_id
28	 1	 220.0	 60.0	 0.001	 1	 6.328426654958672e-05	 0.0	 0	 0	 0	 0.0576	 28 #atom_id|type|x0|y0|z0|e_flag|rho|m|mx|my|mz|chi|trap_id
29	 1	 260.0	 60.0	 0.001	 1	 6.328426654958672e-05	 0.0	 0	 0	 0	 0.0576	 29 #atom_id|type|x0|y0|z0|e_flag|rho|m|mx|my|mz|chi|trap_id
30	 1	 290.0	 60.0	 0.001	 1	 6.328426654958672e-05	 0.0	 0	 0	 0	 0.0576	 30 #atom_id|type|x0|y0|z0|e_flag|rho|m|mx|my|mz|chi|trap_id
31	 1	 20.0	 90.0	 0.001	 1	 6.328426654958672e-05	 0.0	 0	 0	 0	 0.0576	 31 #atom_id|type|x0|y0|z0|e_flag|rho|m|mx|my|mz|chi|trap_id
32	 1	 50.0	 90.0	 0.001	 1	 6.328426654958672e-05	 0.0	 0	 0	 0	 0.0576	 32 #atom_id|type|x0|y0|z0|e_flag|rho|m|mx|my|mz|chi|trap_id
33	 1	 80.0	 90.0	 0.001	 1	 6.328426654958672e-05	 0.0	 0	 0	 0	 0.0576	 33 #atom_id|type|x0|y0|z0|e_flag|rho|m|mx|my|mz|chi|trap_id
34	 1	 110.0	 90.0	 0.001	 1	 6.328426654958672e-05	 0.0	 0	 0	 0	 0.0576	 34 #atom_id|type|x0|y0|z0|e_flag|rho|m|mx|my|mz|chi|trap_id
35	 1	 140.0	 90.0	 0.001	 1	 6.328426654958672e-05	 0.0	 0	 0	 0	 0.0576	 35 #atom_id|type|x0|y0|z0|e_flag|rho|m|mx|my|mz|chi|trap_id
36	 1	 170.0	 90.0	 0.001	 1	 6.328426654958672e-05	 0.0	 0	 0	 0	 0.0576	 36 #atom_id|type|x0|y0|z0|e_flag|rho|m|mx|my|mz|chi|trap_id
37	 1	 200.0	 90.0	 0.001	 1	 6.328426654958672e-05	 0.0	 0	 0	 0	 0.0576	 37 #atom_id|type|x0|y0|z0|e_flag|rho|m|mx|my|mz|chi|trap_id
38	 1	 230.0	 90.0	 0.001	 1	 6.328426654958672e-05	 0.0	 0	 0	 0	 0.0576	 38 #atom_id|type|x0|y0|z0|e_flag|rho|m|mx|my|mz|chi|trap_id
39	 1	 250.0	 90.0	 0.001	 1	 6.328426654958672e-05	 0.0	 0	 0	 0	 0.0576	 39 #atom_id|type|x0|y0|z0|e_flag|rho|m|mx|my|mz|chi|trap_id
40	 1	 280.0	 90.0	 0.001	 1	 6.328426654958672e-05	 0.0	 0	 0	 0	 0.0576	 40 #atom_id|type|x0|y0|z0|e_flag|rho|m|mx|my|mz|chi|trap_id
41	 1	 20.0	 120.0	 0.001	 1	 6.328426654958672e-05	 0.0	 0	 0	 0	 0.0576	 41 #atom_id|type|x0|y0|z0|e_flag|rho|m|mx|my|mz|chi|trap_id
42	 1	 40.0	 120.0	 0.001	 1	 6.328426654958672e-05	 0.0	 0	 0	 0	 0.0576	 42 #atom_id|type|x0|y0|z0|e_flag|rho|m|mx|my|mz|chi|trap_id
43	 1	 70.0	 120.0	 0.001	 1	 6.328426654958672e-05	 0.0	 0	 0	 0	 0.0576	 43 #atom_id|type|x0|y0|z0|e_flag|rho|m|mx|my|mz|chi|trap_id
44	 1	 110.0	 120.0	 0.001	 1	 6.328426654958672e-05	 0.0	 0	 0	 0	 0.0576	 44 #atom_id|type|x0|y0|z0|e_flag|rho|m|mx|my|mz|chi|trap_id
45	 1	 130.0	 120.0	 0.001	 1	 6.328426654958672e-05	 0.0	 0	 0	 0	 0.0576	 45 #atom_id|type|x0|y0|z0|e_flag|rho|m|mx|my|mz|chi|trap_id
46	 1	 160.0	 120.0	 0.001	 1	 6.328426654958672e-05	 0.0	 0	 0	 0	 0.0576	 46 #atom_id|type|x0|y0|z0|e_flag|rho|m|mx|my|mz|chi|trap_id
47	 1	 200.0	 120.0	 0.001	 1	 6.328426654958672e-05	 0.0	 0	 0	 0	 0.0576	 47 #atom_id|type|x0|y0|z0|e_flag|rho|m|mx|my|mz|chi|trap_id
48	 1	 220.0	 120.0	 0.001	 1	 6.328426654958672e-05	 0.0	 0	 0	 0	 0.0576	 48 #atom_id|type|x0|y0|z0|e_flag|rho|m|mx|my|mz|chi|trap_id
49	 1	 250.0	 120.0	 0.001	 1	 6.328426654958672e-05	 0.0	 0	 0	 0	 0.0576	 49 #atom_id|type|x0|y0|z0|e_flag|rho|m|mx|my|mz|chi|trap_id
50	 1	 280.0	 120.0	 0.001	 1	 6.328426654958672e-05	 0.0	 0	 0	 0	 0.0576	 50 #atom_id|type|x0|y0|z0|e_flag|rho|m|mx|my|mz|chi|trap_id
51	 1	 20.0	 150.0	 0.001	 1	 6.328426654958672e-05	 0.0	 0	 0	 0	 0.0576	 51 #atom_id|type|x0|y0|z0|e_flag|rho|m|mx|my|mz|chi|trap_id
52	 1	 50.0	 150.0	 0.001	 1	 6.328426654958672e-05	 0.0	 0	 0	 0	 0.0576	 52 #atom_id|type|x0|y0|z0|e_flag|rho|m|mx|my|mz|chi|trap_id
53	 1	 80.0	 150.0	 0.001	 1	 6.328426654958672e-05	 0.0	 0	 0	 0	 0.0576	 53 #atom_id|type|x0|y0|z0|e_flag|rho|m|mx|my|mz|chi|trap_id
54	 1	 100.0	 150.0	 0.001	 1	 6.328426654958672e-05	 0.0	 0	 0	 0	 0.0576	 54 #atom_id|type|x0|y0|z0|e_flag|rho|m|mx|my|mz|chi|trap_id
55	 1	 140.0	 150.0	 0.001	 1	 6.328426654958672e-05	 0.0	 0	 0	 0	 0.0576	 55 #atom_id|type|x0|y0|z0|e_flag|rho|m|mx|my|mz|chi|trap_id
56	 1	 170.0	 150.0	 0.001	 1	 6.328426654958672e-05	 0.0	 0	 0	 0	 0.0576	 56 #atom_id|type|x0|y0|z0|e_flag|rho|m|mx|my|mz|chi|trap_id
57	 1	 200.0	 150.0	 0.001	 1	 6.328426654958672e-05	 0.0	 0	 0	 0	 0.0576	 57 #atom_id|type|x0|y0|z0|e_flag|rho|m|mx|my|mz|chi|trap_id
58	 1	 230.0	 150.0	 0.001	 1	 6.328426654958672e-05	 0.0	 0	 0	 0	 0.0576	 58 #atom_id|type|x0|y0|z0|e_flag|rho|m|mx|my|mz|chi|trap_id
59	 1	 260.0	 150.0	 0.001	 1	 6.328426654958672e-05	 0.0	 0	 0	 0	 0.0576	 59 #atom_id|type|x0|y0|z0|e_flag|rho|m|mx|my|mz|chi|trap_id
60	 1	 290.0	 150.0	 0.001	 1	 6.328426654958672e-05	 0.0	 0	 0	 0	 0.0576	 60 #atom_id|type|x0|y0|z0|e_flag|rho|m|mx|my|mz|chi|trap_id
61	 1	 10.0	 180.0	 0.001	 1	 6.328426654958672e-05	 0.0	 0	 0	 0	 0.0576	 61 #atom_id|type|x0|y0|z0|e_flag|rho|m|mx|my|mz|chi|trap_id
62	 1	 50.0	 180.0	 0.001	 1	 6.328426654958672e-05	 0.0	 0	 0	 0	 0.0576	 62 #atom_id|type|x0|y0|z0|e_flag|rho|m|mx|my|mz|chi|trap_id
63	 1	 70.0	 180.0	 0.001	 1	 6.328426654958672e-05	 0.0	 0	 0	 0	 0.0576	 63 #atom_id|type|x0|y0|z0|e_flag|rho|m|mx|my|mz|chi|trap_id
64	 1	 110.0	 180.0	 0.001	 1	 6.328426654958672e-05	 0.0	 0	 0	 0	 0.0576	 64 #atom_id|type|x0|y0|z0|e_flag|rho|m|mx|my|mz|chi|trap_id
65	 1	 130.0	 180.0	 0.001	 1	 6.328426654958672e-05	 0.0	 0	 0	 0	 0.0576	 65 #atom_id|type|x0|y0|z0|e_flag|rho|m|mx|my|mz|chi|trap_id
66	 1	 160.0	 180.0	 0.001	 1	 6.328426654958672e-05	 0.0	 0	 0	 0	 0.0576	 66 #atom_id|type|x0|y0|z0|e_flag|rho|m|mx|my|mz|chi|trap_id
67	 1	 200.0	 180.0	 0.001	 1	 6.328426654958672e-05	 0.0	 0	 0	 0	 0.0576	 67 #atom_id|type|x0|y0|z0|e_flag|rho|m|mx|my|mz|chi|trap_id
68	 1	 230.0	 180.0	 0.001	 1	 6.328426654958672e-05	 0.0	 0	 0	 0	 0.0576	 68 #atom_id|type|x0|y0|z0|e_flag|rho|m|mx|my|mz|chi|trap_id
69	 1	 260.0	 180.0	 0.001	 1	 6.328426654958672e-05	 0.0	 0	 0	 0	 0.0576	 69 #atom_id|type|x0|y0|z0|e_flag|rho|m|mx|my|mz|chi|trap_id
70	 1	 280.0	 180.0	 0.001	 1	 6.328426654958672e-05	 0.0	 0	 0	 0	 0.0576	 70 #atom_id|type|x0|y0|z0|e_flag|rho|m|mx|my|mz|chi|trap_id
71	 1	 10.0	 210.0	 0.001	 1	 6.328426654958672e-05	 0.0	 0	 0	 0	 0.0576	 71 #atom_id|type|x0|y0|z0|e_flag|rho|m|mx|my|mz|chi|trap_id
72	 1	 40.0	 210.0	 0.001	 1	 6.328426654958672e-05	 0.0	 0	 0	 0	 0.0576	 72 #atom_id|type|x0|y0|z0|e_flag|rho|m|mx|my|mz|chi|trap_id
73	 1	 70.0	 210.0	 0.001	 1	 6.328426654958672e-05	 0.0	 0	 0	 0	 0.0576	 73 #atom_id|type|x0|y0|z0|e_flag|rho|m|mx|my|mz|chi|trap_id
74	 1	 100.0	 210.0	 0.001	 1	 6.328426654958672e-05	 0.0	 0	 0	 0	 0.0576	 74 #atom_id|type|x0|y0|z0|e_flag|rho|m|mx|my|mz|chi|trap_id
75	 1	 130.0	 210.0	 0.001	 1	 6.328426654958672e-05	 0.0	 0	 0	 0	 0.0576	 75 #atom_id|type|x0|y0|z0|e_flag|rho|m|mx|my|mz|chi|trap_id
76	 1	 170.0	 210.0	 0.001	 1	 6.328426654958672e-05	 0.0	 0	 0	 0	 0.0576	 76 #atom_id|type|x0|y0|z0|e_flag|rho|m|mx|my|mz|chi|trap_id
77	 1	 190.0	 210.0	 0.001	 1	 6.328426654958672e-05	 0.0	 0	 0	 0	 0.0576	 77 #atom_id|type|x0|y0|z0|e_flag|rho|m|mx|my|mz|chi|trap_id
78	 1	 220.0	 210.0	 0.001	 1	 6.328426654958672e-05	 0.0	 0	 0	 0	 0.0576	 78 #atom_id|type|x0|y0|z0|e_flag|rho|m|mx|my|mz|chi|trap_id
79	 1	 260.0	 210.0	 0.001	 1	 6.328426654958672e-05	 0.0	 0	 0	 0	 0.0576	 79 #atom_id|type|x0|y0|z0|e_flag|rho|m|mx|my|mz|chi|trap_id
80	 1	 290.0	 210.0	 0.001	 1	 6.328426654958672e-05	 0.0	 0	 0	 0	 0.0576	 80 #atom_id|type|x0|y0|z0|e_flag|rho|m|mx|my|mz|chi|trap_id
81	 1	 10.0	 240.0	 0.001	 1	 6.328426654958672e-05	 0.0	 0	 0	 0	 0.0576	 81 #atom_id|type|x0|y0|z0|e_flag|rho|m|mx|my|mz|chi|trap_id
82	 1	 40.0	 240.0	 0.001	 1	 6.328426654958672e-05	 0.0	 0	 0	 0	 0.0576	 82 #atom_id|type|x0|y0|z0|e_flag|rho|m|mx|my|mz|chi|trap_id
83	 1	 70.0	 240.0	 0.001	 1	 6.328426654958672e-05	 0.0	 0	 0	 0	 0.0576	 83 #atom_id|type|x0|y0|z0|e_flag|rho|m|mx|my|mz|chi|trap_id
84	 1	 100.0	 240.0	 0.001	 1	 6.328426654958672e-05	 0.0	 0	 0	 0	 0.0576	 84 #atom_id|type|x0|y0|z0|e_flag|rho|m|mx|my|mz|chi|trap_id
85	 1	 140.0	 240.0	 0.001	 1	 6.328426654958672e-05	 0.0	 0	 0	 0	 0.0576	 85 #atom_id|type|x0|y0|z0|e_flag|rho|m|mx|my|mz|chi|trap_id
86	 1	 160.0	 240.0	 0.001	 1	 6.328426654958672e-05	 0.0	 0	 0	 0	 0.0576	 86 #atom_id|type|x0|y0|z0|e_flag|rho|m|mx|my|mz|chi|trap_id
87	 1	 190.0	 240.0	 0.001	 1	 6.328426654958672e-05	 0.0	 0	 0	 0	 0.0576	 87 #atom_id|type|x0|y0|z0|e_flag|rho|m|mx|my|mz|chi|trap_id
88	 1	 220.0	 240.0	 0.001	 1	 6.328426654958672e-05	 0.0	 0	 0	 0	 0.0576	 88 #atom_id|type|x0|y0|z0|e_flag|rho|m|mx|my|mz|chi|trap_id
89	 1	 250.0	 240.0	 0.001	 1	 6.328426654958672e-05	 0.0	 0	 0	 0	 0.0576	 89 #atom_id|type|x0|y0|z0|e_flag|rho|m|mx|my|mz|chi|trap_id
90	 1	 290.0	 240.0	 0.001	 1	 6.328426654958672e-05	 0.0	 0	 0	 0	 0.0576	 90 #atom_id|type|x0|y0|z0|e_flag|rho|m|mx|my|mz|chi|trap_id
91	 1	 20.0	 270.0	 0.001	 1	 6.328426654958672e-05	 0.0	 0	 0	 0	 0.0576	 91 #atom_id|type|x0|y0|z0|e_flag|rho|m|mx|my|mz|chi|trap_id
92	 1	 50.0	 270.0	 0.001	 1	 6.328426654958672e-05	 0.0	 0	 0	 0	 0.0576	 92 #atom_id|type|x0|y0|z0|e_flag|rho|m|mx|my|mz|chi|trap_id
93	 1	 80.0	 270.0	 0.001	 1	 6.328426654958672e-05	 0.0	 0	 0	 0	 0.0576	 93 #atom_id|type|x0|y0|z0|e_flag|rho|m|mx|my|mz|chi|trap_id
94	 1	 110.0	 270.0	 0.001	 1	 6.328426654958672e-05	 0.0	 0	 0	 0	 0.0576	 94 #atom_id|type|x0|y0|z0|e_flag|rho|m|mx|my|mz|chi|trap_id
95	 1	 140.0	 270.0	 0.001	 1	 6.328426654958672e-05	 0.0	 0	 0	 0	 0.0576	 95 #atom_id|type|x0|y0|z0|e_flag|rho|m|mx|my|mz|chi|trap_id
96	 1	 160.0	 270.0	 0.001	 1	 6.328426654958672e-05	 0.0	 0	 0	 0	 0.0576	 96 #atom_id|type|x0|y0|z0|e_flag|rho|m|mx|my|mz|chi|trap_id
97	 1	 190.0	 270.0	 0.001	 1	 6.328426654958672e-05	 0.0	 0	 0	 0	 0.0576	 97 #atom_id|type|x0|y0|z0|e_flag|rho|m|mx|my|mz|chi|trap_id
98	 1	 230.0	 270.0	 0.001	 1	 6.328426654958672e-05	 0.0	 0	 0	 0	 0.0576	 98 #atom_id|type|x0|y0|z0|e_flag|rho|m|mx|my|mz|chi|trap_id
99	 1	 250.0	 270.0	 0.001	 1	 6.328426654958672e-05	 0.0	 0	 0	 0	 0.0576	 99 #atom_id|type|x0|y0|z0|e_flag|rho|m|mx|my|mz|chi|trap_id
100	 1	 280.0	 270.0	 0.001	 1	 6.328426654958672e-05	 0.0	 0	 0	 0	 0.0576	 100 #atom_id|type|x0|y0|z0|e_flag|rho|m|mx|my|mz|chi|trap_id
101	 1	 6.123233995736767e-16	 10.0	 0.001	 1	 6.328426654958672e-05	 0.0	 0	 0	 0	 0.0576	 101 #atom_id|type|x0|y0|z0|e_flag|rho|m|mx|my|mz|chi|trap_id
102	 1	 30.0	 20.0	 0.001	 1	 6.328426654958672e-05	 0.0	 0	 0	 0	 0.0576	 102 #atom_id|type|x0|y0|z0|e_flag|rho|m|mx|my|mz|chi|trap_id
103	 1	 60.0	 20.0	 0.001	 1	 6.328426654958672e-05	 0.0	 0	 0	 0	 0.0576	 103 #atom_id|type|x0|y0|z0|e_flag|rho|m|mx|my|mz|chi|trap_id
104	 1	 90.0	 20.0	 0.001	 1	 6.328426654958672e-05	 0.0	 0	 0	 0	 0.0576	 104 #atom_id|type|x0|y0|z0|e_flag|rho|m|mx|my|mz|chi|trap_id
105	 1	 120.0	 20.0	 0.001	 1	 6.328426654958672e-05	 0.0	 0	 0	 0	 0.0576	 105 #atom_id|type|x0|y0|z0|e_flag|rho|m|mx|my|mz|chi|trap_id
106	 1	 150.0	 10.0	 0.001	 1	 6.328426654958672e-05	 0.0	 0	 0	 0	 0.0576	 106 #atom_id|type|x0|y0|z0|e_flag|rho|m|mx|my|mz|chi|trap_id
107	 1	 180.0	 10.0	 0.001	 1	 6.328426654958672e-05	 0.0	 0	 0	 0	 0.0576	 107 #atom_id|type|x0|y0|z0|e_flag|rho|m|mx|my|mz|chi|trap_id
108	 1	 210.0	 20.0	 0.001	 1	 6.328426654958672e-05	 0.0	 0	 0	 0	 0.0576	 108 #atom_id|type|x0|y0|z0|e_flag|rho|m|mx|my|mz|chi|trap_id
109	 1	 240.0	 20.0	 0.001	 1	 6.328426654958672e-05	 0.0	 0	 0	 0	 0.0576	 109 #atom_id|type|x0|y0|z0|e_flag|rho|m|mx|my|mz|chi|trap_id
110	 1	 270.0	 20.0	 0.001	 1	 6.328426654958672e-05	 0.0	 0	 0	 0	 0.0576	 110 #atom_id|type|x0|y0|z0|e_flag|rho|m|mx|my|mz|chi|trap_id
111	 1	 1.2246467991473533e-15	 50.0	 0.001	 1	 6.328426654958672e-05	 0.0	 0	 0	 0	 0.0576	 111 #atom_id|type|x0|y0|z0|e_flag|rho|m|mx|my|mz|chi|trap_id
112	 1	 30.0	 50.0	 0.001	 1	 6.328426654958672e-05	 0.0	 0	 0	 0	 0.0576	 112 #atom_id|type|x0|y0|z0|e_flag|rho|m|mx|my|mz|chi|trap_id
113	 1	 60.0	 50.0	 0.001	 1	 6.328426654958672e-05	 0.0	 0	 0	 0	 0.0576	 113 #atom_id|type|x0|y0|z0|e_flag|rho|m|mx|my|mz|chi|trap_id
114	 1	 90.0	 50.0	 0.001	 1	 6.328426654958672e-05	 0.0	 0	 0	 0	 0.0576	 114 #atom_id|type|x0|y0|z0|e_flag|rho|m|mx|my|mz|chi|trap_id
115	 1	 120.0	 40.0	 0.001	 1	 6.328426654958672e-05	 0.0	 0	 0	 0	 0.0576	 115 #atom_id|type|x0|y0|z0|e_flag|rho|m|mx|my|mz|chi|trap_id
116	 1	 150.0	 50.0	 0.001	 1	 6.328426654958672e-05	 0.0	 0	 0	 0	 0.0576	 116 #atom_id|type|x0|y0|z0|e_flag|rho|m|mx|my|mz|chi|trap_id
117	 1	 180.0	 50.0	 0.001	 1	 6.328426654958672e-05	 0.0	 0	 0	 0	 0.0576	 117 #atom_id|type|x0|y0|z0|e_flag|rho|m|mx|my|mz|chi|trap_id
118	 1	 210.0	 40.0	 0.001	 1	 6.328426654958672e-05	 0.0	 0	 0	 0	 0.0576	 118 #atom_id|type|x0|y0|z0|e_flag|rho|m|mx|my|mz|chi|trap_id
119	 1	 240.0	 40.0	 0.001	 1	 6.328426654958672e-05	 0.0	 0	 0	 0	 0.0576	 119 #atom_id|type|x0|y0|z0|e_flag|rho|m|mx|my|mz|chi|trap_id
120	 1	 270.0	 40.0	 0.001	 1	 6.328426654958672e-05	 0.0	 0	 0	 0	 0.0576	 120 #atom_id|type|x0|y0|z0|e_flag|rho|m|mx|my|mz|chi|trap_id
121	 1	 6.123233995736767e-16	 70.0	 0.001	 1	 6.328426654958672e-05	 0.0	 0	 0	 0	 0.0576	 121 #atom_id|type|x0|y0|z0|e_flag|rho|m|mx|my|mz|chi|trap_id
122	 1	 30.0	 80.0	 0.001	 1	 6.328426654958672e-05	 0.0	 0	 0	 0	 0.0576	 122 #atom_id|type|x0|y0|z0|e_flag|rho|m|mx|my|mz|chi|trap_id
123	 1	 60.0	 80.0	 0.001	 1	 6.328426654958672e-05	 0.0	 0	 0	 0	 0.0576	 123 #atom_id|type|x0|y0|z0|e_flag|rho|m|mx|my|mz|chi|trap_id
124	 1	 90.0	 80.0	 0.001	 1	 6.328426654958672e-05	 0.0	 0	 0	 0	 0.0576	 124 #atom_id|type|x0|y0|z0|e_flag|rho|m|mx|my|mz|chi|trap_id
125	 1	 120.0	 70.0	 0.001	 1	 6.328426654958672e-05	 0.0	 0	 0	 0	 0.0576	 125 #atom_id|type|x0|y0|z0|e_flag|rho|m|mx|my|mz|chi|trap_id
126	 1	 150.0	 80.0	 0.001	 1	 6.328426654958672e-05	 0.0	 0	 0	 0	 0.0576	 126 #atom_id|type|x0|y0|z0|e_flag|rho|m|mx|my|mz|chi|trap_id
127	 1	 180.0	 70.0	 0.001	 1	 6.328426654958672e-05	 0.0	 0	 0	 0	 0.0576	 127 #atom_id|type|x0|y0|z0|e_flag|rho|m|mx|my|mz|chi|trap_id
128	 1	 210.0	 80.0	 0.001	 1	 6.328426654958672e-05	 0.0	 0	 0	 0	 0.0576	 128 #atom_id|type|x0|y0|z0|e_flag|rho|m|mx|my|mz|chi|trap_id
129	 1	 240.0	 70.0	 0.001	 1	 6.328426654958672e-05	 0.0	 0	 0	 0	 0.0576	 129 #atom_id|type|x0|y0|z0|e_flag|rho|m|mx|my|mz|chi|trap_id
130	 1	 270.0	 80.0	 0.001	 1	 6.328426654958672e-05	 0.0	 0	 0	 0	 0.0576	 130 #atom_id|type|x0|y0|z0|e_flag|rho|m|mx|my|mz|chi|trap_id
131	 1	 1.2246467991473533e-15	 110.0	 0.001	 1	 6.328426654958672e-05	 0.0	 0	 0	 0	 0.0576	 131 #atom_id|type|x0|y0|z0|e_flag|rho|m|mx|my|mz|chi|trap_id
132	 1	 30.0	 100.0	 0.001	 1	 6.328426654958672e-05	 0.0	 0	 0	 0	 0.0576	 132 #atom_id|type|x0|y0|z0|e_flag|rho|m|mx|my|mz|chi|trap_id
133	 1	 60.0	 100.0	 0.001	 1	 6.328426654958672e-05	 0.0	 0	 0	 0	 0.0576	 133 #atom_id|type|x0|y0|z0|e_flag|rho|m|mx|my|mz|chi|trap_id
134	 1	 90.0	 110.0	 0.001	 1	 6.328426654958672e-05	 0.0	 0	 0	 0	 0.0576	 134 #atom_id|type|x0|y0|z0|e_flag|rho|m|mx|my|mz|chi|trap_id
135	 1	 120.0	 110.0	 0.001	 1	 6.328426654958672e-05	 0.0	 0	 0	 0	 0.0576	 135 #atom_id|type|x0|y0|z0|e_flag|rho|m|mx|my|mz|chi|trap_id
136	 1	 150.0	 110.0	 0.001	 1	 6.328426654958672e-05	 0.0	 0	 0	 0	 0.0576	 136 #atom_id|type|x0|y0|z0|e_flag|rho|m|mx|my|mz|chi|trap_id
137	 1	 180.0	 110.0	 0.001	 1	 6.328426654958672e-05	 0.0	 0	 0	 0	 0.0576	 137 #atom_id|type|x0|y0|z0|e_flag|rho|m|mx|my|mz|chi|trap_id
138	 1	 210.0	 110.0	 0.001	 1	 6.328426654958672e-05	 0.0	 0	 0	 0	 0.0576	 138 #atom_id|type|x0|y0|z0|e_flag|rho|m|mx|my|mz|chi|trap_id
139	 1	 240.0	 110.0	 0.001	 1	 6.328426654958672e-05	 0.0	 0	 0	 0	 0.0576	 139 #atom_id|type|x0|y0|z0|e_flag|rho|m|mx|my|mz|chi|trap_id
140	 1	 270.0	 110.0	 0.001	 1	 6.328426654958672e-05	 0.0	 0	 0	 0	 0.0576	 140 #atom_id|type|x0|y0|z0|e_flag|rho|m|mx|my|mz|chi|trap_id
141	 1	 1.2246467991473533e-15	 140.0	 0.001	 1	 6.328426654958672e-05	 0.0	 0	 0	 0	 0.0576	 141 #atom_id|type|x0|y0|z0|e_flag|rho|m|mx|my|mz|chi|trap_id
142	 1	 30.0	 140.0	 0.001	 1	 6.328426654958672e-05	 0.0	 0	 0	 0	 0.0576	 142 #atom_id|type|x0|y0|z0|e_flag|rho|m|mx|my|mz|chi|trap_id
143	 1	 60.0	 130.0	 0.001	 1	 6.328426654958672e-05	 0.0	 0	 0	 0	 0.0576	 143 #atom_id|type|x0|y0|z0|e_flag|rho|m|mx|my|mz|chi|trap_id
144	 1	 90.0	 140.0	 0.001	 1	 6.328426654958672e-05	 0.0	 0	 0	 0	 0.0576	 144 #atom_id|type|x0|y0|z0|e_flag|rho|m|mx|my|mz|chi|trap_id
145	 1	 120.0	 140.0	 0.001	 1	 6.328426654958672e-05	 0.0	 0	 0	 0	 0.0576	 145 #atom_id|type|x0|y0|z0|e_flag|rho|m|mx|my|mz|chi|trap_id
146	 1	 150.0	 130.0	 0.001	 1	 6.328426654958672e-05	 0.0	 0	 0	 0	 0.0576	 146 #atom_id|type|x0|y0|z0|e_flag|rho|m|mx|my|mz|chi|trap_id
147	 1	 180.0	 140.0	 0.001	 1	 6.328426654958672e-05	 0.0	 0	 0	 0	 0.0576	 147 #atom_id|type|x0|y0|z0|e_flag|rho|m|mx|my|mz|chi|trap_id
148	 1	 210.0	 140.0	 0.001	 1	 6.328426654958672e-05	 0.0	 0	 0	 0	 0.0576	 148 #atom_id|type|x0|y0|z0|e_flag|rho|m|mx|my|mz|chi|trap_id
149	 1	 240.0	 140.0	 0.001	 1	 6.328426654958672e-05	 0.0	 0	 0	 0	 0.0576	 149 #atom_id|type|x0|y0|z0|e_flag|rho|m|mx|my|mz|chi|trap_id
150	 1	 270.0	 140.0	 0.001	 1	 6.328426654958672e-05	 0.0	 0	 0	 0	 0.0576	 150 #atom_id|type|x0|y0|z0|e_flag|rho|m|mx|my|mz|chi|trap_id
151	 1	 6.123233995736767e-16	 160.0	 0.001	 1	 6.328426654958672e-05	 0.0	 0	 0	 0	 0.0576	 151 #atom_id|type|x0|y0|z0|e_flag|rho|m|mx|my|mz|chi|trap_id
152	 1	 30.0	 160.0	 0.001	 1	 6.328426654958672e-05	 0.0	 0	 0	 0	 0.0576	 152 #atom_id|type|x0|y0|z0|e_flag|rho|m|mx|my|mz|chi|trap_id
153	 1	 60.0	 160.0	 0.001	 1	 6.328426654958672e-05	 0.0	 0	 0	 0	 0.0576	 153 #atom_id|type|x0|y0|z0|e_flag|rho|m|mx|my|mz|chi|trap_id
154	 1	 90.0	 160.0	 0.001	 1	 6.328426654958672e-05	 0.0	 0	 0	 0	 0.0576	 154 #atom_id|type|x0|y0|z0|e_flag|rho|m|mx|my|mz|chi|trap_id
155	 1	 120.0	 160.0	 0.001	 1	 6.328426654958672e-05	 0.0	 0	 0	 0	 0.0576	 155 #atom_id|type|x0|y0|z0|e_flag|rho|m|mx|my|mz|chi|trap_id
156	 1	 150.0	 170.0	 0.001	 1	 6.328426654958672e-05	 0.0	 0	 0	 0	 0.0576	 156 #atom_id|type|x0|y0|z0|e_flag|rho|m|mx|my|mz|chi|trap_id
157	 1	 180.0	 160.0	 0.001	 1	 6.328426654958672e-05	 0.0	 0	 0	 0	 0.0576	 157 #atom_id|type|x0|y0|z0|e_flag|rho|m|mx|my|mz|chi|trap_id
158	 1	 210.0	 160.0	 0.001	 1	 6.328426654958672e-05	 0.0	 0	 0	 0	 0.0576	 158 #atom_id|type|x0|y0|z0|e_flag|rho|m|mx|my|mz|chi|trap_id
159	 1	 240.0	 170.0	 0.001	 1	 6.328426654958672e-05	 0.0	 0	 0	 0	 0.0576	 159 #atom_id|type|x0|y0|z0|e_flag|rho|m|mx|my|mz|chi|trap_id
160	 1	 270.0	 170.0	 0.001	 1	 6.328426654958672e-05	 0.0	 0	 0	 0	 0.0576	 160 #atom_id|type|x0|y0|z0|e_flag|rho|m|mx|my|mz|chi|trap_id
161	 1	 1.2246467991473533e-15	 200.0	 0.001	 1	 6.328426654958672e-05	 0.0	 0	 0	 0	 0.0576	 161 #atom_id|type|x0|y0|z0|e_flag|rho|m|mx|my|mz|chi|trap_id
162	 1	 30.0	 190.0	 0.001	 1	 6.328426654958672e-05	 0.0	 0	 0	 0	 0.0576	 162 #atom_id|type|x0|y0|z0|e_flag|rho|m|mx|my|mz|chi|trap_id
163	 1	 60.0	 190.0	 0.001	 1	 6.328426654958672e-05	 0.0	 0	 0	 0	 0.0576	 163 #atom_id|type|x0|y0|z0|e_flag|rho|m|mx|my|mz|chi|trap_id
164	 1	 90.0	 200.0	 0.001	 1	 6.328426654958672e-05	 0.0	 0	 0	 0	 0.0576	 164 #atom_id|type|x0|y0|z0|e_flag|rho|m|mx|my|mz|chi|trap_id
165	 1	 120.0	 200.0	 0.001	 1	 6.328426654958672e-05	 0.0	 0	 0	 0	 0.0576	 165 #atom_id|type|x0|y0|z0|e_flag|rho|m|mx|my|mz|chi|trap_id
166	 1	 150.0	 200.0	 0.001	 1	 6.328426654958672e-05	 0.0	 0	 0	 0	 0.0576	 166 #atom_id|type|x0|y0|z0|e_flag|rho|m|mx|my|mz|chi|trap_id
167	 1	 180.0	 190.0	 0.001	 1	 6.328426654958672e-05	 0.0	 0	 0	 0	 0.0576	 167 #atom_id|type|x0|y0|z0|e_flag|rho|m|mx|my|mz|chi|trap_id
168	 1	 210.0	 200.0	 0.001	 1	 6.328426654958672e-05	 0.0	 0	 0	 0	 0.0576	 168 #atom_id|type|x0|y0|z0|e_flag|rho|m|mx|my|mz|chi|trap_id
169	 1	 240.0	 200.0	 0.001	 1	 6.328426654958672e-05	 0.0	 0	 0	 0	 0.0576	 169 #atom_id|type|x0|y0|z0|e_flag|rho|m|mx|my|mz|chi|trap_id
170	 1	 270.0	 190.0	 0.001	 1	 6.328426654958672e-05	 0.0	 0	 0	 0	 0.0576	 170 #atom_id|type|x0|y0|z0|e_flag|rho|m|mx|my|mz|chi|trap_id
171	 1	 6.123233995736767e-16	 220.0	 0.001	 1	 6.328426654958672e-05	 0.0	 0	 0	 0	 0.0576	 171 #atom_id|type|x0|y0|z0|e_flag|rho|m|mx|my|mz|chi|trap_id
172	 1	 30.0	 220.0	 0.001	 1	 6.328426654958672e-05	 0.0	 0	 0	 0	 0.0576	 172 #atom_id|type|x0|y0|z0|e_flag|rho|m|mx|my|mz|chi|trap_id
173	 1	 60.0	 230.0	 0.001	 1	 6.328426654958672e-05	 0.0	 0	 0	 0	 0.0576	 173 #atom_id|type|x0|y0|z0|e_flag|rho|m|mx|my|mz|chi|trap_id
174	 1	 90.0	 220.0	 0.001	 1	 6.328426654958672e-05	 0.0	 0	 0	 0	 0.0576	 174 #atom_id|type|x0|y0|z0|e_flag|rho|m|mx|my|mz|chi|trap_id
175	 1	 120.0	 220.0	 0.001	 1	 6.328426654958672e-05	 0.0	 0	 0	 0	 0.0576	 175 #atom_id|type|x0|y0|z0|e_flag|rho|m|mx|my|mz|chi|trap_id
176	 1	 150.0	 230.0	 0.001	 1	 6.328426654958672e-05	 0.0	 0	 0	 0	 0.0576	 176 #atom_id|type|x0|y0|z0|e_flag|rho|m|mx|my|mz|chi|trap_id
177	 1	 180.0	 220.0	 0.001	 1	 6.328426654958672e-05	 0.0	 0	 0	 0	 0.0576	 177 #atom_id|type|x0|y0|z0|e_flag|rho|m|mx|my|mz|chi|trap_id
178	 1	 210.0	 220.0	 0.001	 1	 6.328426654958672e-05	 0.0	 0	 0	 0	 0.0576	 178 #atom_id|type|x0|y0|z0|e_flag|rho|m|mx|my|mz|chi|trap_id
179	 1	 240.0	 230.0	 0.001	 1	 6.328426654958672e-05	 0.0	 0	 0	 0	 0.0576	 179 #atom_id|type|x0|y0|z0|e_flag|rho|m|mx|my|mz|chi|trap_id
180	 1	 270.0	 230.0	 0.001	 1	 6.328426654958672e-05	 0.0	 0	 0	 0	 0.0576	 180 #atom_id|type|x0|y0|z0|e_flag|rho|m|mx|my|mz|chi|trap_id
181	 1	 6.123233995736767e-16	 250.0	 0.001	 1	 6.328426654958672e-05	 0.0	 0	 0	 0	 0.0576	 181 #atom_id|type|x0|y0|z0|e_flag|rho|m|mx|my|mz|chi|trap_id
182	 1	 30.0	 250.0	 0.001	 1	 6.328426654958672e-05	 0.0	 0	 0	 0	 0.0576	 182 #atom_id|type|x0|y0|z0|e_flag|rho|m|mx|my|mz|chi|trap_id
183	 1	 60.0	 260.0	 0.001	 1	 6.328426654958672e-05	 0.0	 0	 0	 0	 0.0576	 183 #atom_id|type|x0|y0|z0|e_flag|rho|m|mx|my|mz|chi|trap_id
184	 1	 90.0	 250.0	 0.001	 1	 6.328426654958672e-05	 0.0	 0	 0	 0	 0.0576	 184 #atom_id|type|x0|y0|z0|e_flag|rho|m|mx|my|mz|chi|trap_id
185	 1	 120.0	 260.0	 0.001	 1	 6.328426654958672e-05	 0.0	 0	 0	 0	 0.0576	 185 #atom_id|type|x0|y0|z0|e_flag|rho|m|mx|my|mz|chi|trap_id
186	 1	 150.0	 250.0	 0.001	 1	 6.328426654958672e-05	 0.0	 0	 0	 0	 0.0576	 186 #atom_id|type|x0|y0|z0|e_flag|rho|m|mx|my|mz|chi|trap_id
187	 1	 180.0	 260.0	 0.001	 1	 6.328426654958672e-05	 0.0	 0	 0	 0	 0.0576	 187 #atom_id|type|x0|y0|z0|e_flag|rho|m|mx|my|mz|chi|trap_id
188	 1	 210.0	 260.0	 0.001	 1	 6.328426654958672e-05	 0.0	 0	 0	 0	 0.0576	 188 #atom_id|type|x0|y0|z0|e_flag|rho|m|mx|my|mz|chi|trap_id
189	 1	 240.0	 260.0	 0.001	 1	 6.328426654958672e-05	 0.0	 0	 0	 0	 0.0576	 189 #atom_id|type|x0|y0|z0|e_flag|rho|m|mx|my|mz|chi|trap_id
190	 1	 270.0	 260.0	 0.001	 1	 6.328426654958672e-05	 0.0	 0	 0	 0	 0.0576	 190 #atom_id|type|x0|y0|z0|e_flag|rho|m|mx|my|mz|chi|trap_id
191	 1	 1.2246467991473533e-15	 290.0	 0.001	 1	 6.328426654958672e-05	 0.0	 0	 0	 0	 0.0576	 191 #atom_id|type|x0|y0|z0|e_flag|rho|m|mx|my|mz|chi|trap_id
192	 1	 30.0	 290.0	 0.001	 1	 6.328426654958672e-05	 0.0	 0	 0	 0	 0.0576	 192 #atom_id|type|x0|y0|z0|e_flag|rho|m|mx|my|mz|chi|trap_id
193	 1	 60.0	 280.0	 0.001	 1	 6.328426654958672e-05	 0.0	 0	 0	 0	 0.0576	 193 #atom_id|type|x0|y0|z0|e_flag|rho|m|mx|my|mz|chi|trap_id
194	 1	 90.0	 290.0	 0.001	 1	 6.328426654958672e-05	 0.0	 0	 0	 0	 0.0576	 194 #atom_id|type|x0|y0|z0|e_flag|rho|m|mx|my|mz|chi|trap_id
195	 1	 120.0	 280.0	 0.001	 1	 6.328426654958672e-05	 0.0	 0	 0	 0	 0.0576	 195 #atom_id|type|x0|y0|z0|e_flag|rho|m|mx|my|mz|chi|trap_id
196	 1	 150.0	 290.0	 0.001	 1	 6.328426654958672e-05	 0.0	 0	 0	 0	 0.0576	 196 #atom_id|type|x0|y0|z0|e_flag|rho|m|mx|my|mz|chi|trap_id
197	 1	 180.0	 290.0	 0.001	 1	 6.328426654958672e-05	 0.0	 0	 0	 0	 0.0576	 197 #atom_id|type|x0|y0|z0|e_flag|rho|m|mx|my|mz|chi|trap_id
198	 1	 210.0	 280.0	 0.001	 1	 6.328426654958672e-05	 0.0	 0	 0	 0	 0.0576	 198 #atom_id|type|x0|y0|z0|e_flag|rho|m|mx|my|mz|chi|trap_id
199	 1	 240.0	 280.0	 0.001	 1	 6.328426654958672e-05	 0.0	 0	 0	 0	 0.0576	 199 #atom_id|type|x0|y0|z0|e_flag|rho|m|mx|my|mz|chi|trap_id
200	 1	 270.0	 290.0	 0.001	 1	 6.328426654958672e-05	 0.0	 0	 0	 0	 0.0576	 200 #atom_id|type|x0|y0|z0|e_flag|rho|m|mx|my|mz|chi|trap_id
201	 2	 15.0	 0.0	 0.0	 0	 1	 0	 -10.0	 -0.0	 -0.0	 0	 1 #trap id|type|x0|y0|z0|e_flag|null|0|dx|dy|dz|0|atom_id
202	 2	 45.0	 0.0	 0.0	 0	 1	 0	 10.0	 0.0	 0.0	 0	 2 #trap id|type|x0|y0|z0|e_flag|null|0|dx|dy|dz|0|atom_id
203	 2	 75.0	 0.0	 0.0	 0	 1	 0	 -10.0	 -0.0	 -0.0	 0	 3 #trap id|type|x0|y0|z0|e_flag|null|0|dx|dy|dz|0|atom_id
204	 2	 105.0	 0.0	 0.0	 0	 1	 0	 -10.0	 -0.0	 -0.0	 0	 4 #trap id|type|x0|y0|z0|e_flag|null|0|dx|dy|dz|0|atom_id
205	 2	 135.0	 0.0	 0.0	 0	 1	 0	 -10.0	 -0.0	 -0.0	 0	 5 #trap id|type|x0|y0|z0|e_flag|null|0|dx|dy|dz|0|atom_id
206	 2	 165.0	 0.0	 0.0	 0	 1	 0	 -10.0	 -0.0	 -0.0	 0	 6 #trap id|type|x0|y0|z0|e_flag|null|0|dx|dy|dz|0|atom_id
207	 2	 195.0	 0.0	 0.0	 0	 1	 0	 10.0	 0.0	 0.0	 0	 7 #trap id|type|x0|y0|z0|e_flag|null|0|dx|dy|dz|0|atom_id
208	 2	 225.0	 0.0	 0.0	 0	 1	 0	 -10.0	 -0.0	 -0.0	 0	 8 #trap id|type|x0|y0|z0|e_flag|null|0|dx|dy|dz|0|atom_id
209	 2	 255.0	 0.0	 0.0	 0	 1	 0	 -10.0	 -0.0	 -0.0	 0	 9 #trap id|type|x0|y0|z0|e_flag|null|0|dx|dy|dz|0|atom_id
210	 2	 285.0	 0.0	 0.0	 0	 1	 0	 -10.0	 -0.0	 -0.0	 0	 10 #trap id|type|x0|y0|z0|e_flag|null|0|dx|dy|dz|0|atom_id
211	 2	 15.0	 30.0	 0.0	 0	 1	 0	 10.0	 0.0	 0.0	 0	 11 #trap id|type|x0|y0|z0|e_flag|null|0|dx|dy|dz|0|atom_id
212	 2	 45.0	 30.0	 0.0	 0	 1	 0	 -10.0	 -0.0	 -0.0	 0	 12 #trap id|type|x0|y0|z0|e_flag|null|0|dx|dy|dz|0|atom_id
213	 2	 75.0	 30.0	 0.0	 0	 1	 0	 10.0	 0.0	 0.0	 0	 13 #trap id|type|x0|y0|z0|e_flag|null|0|dx|dy|dz|0|atom_id
214	 2	 105.0	 30.0	 0.0	 0	 1	 0	 -10.0	 -0.0	 -0.0	 0	 14 #trap id|type|x0|y0|z0|e_flag|null|0|dx|dy|dz|0|atom_id
215	 2	 135.0	 30.0	 0.0	 0	 1	 0	 -10.0	 -0.0	 -0.0	 0	 15 #trap id|type|x0|y0|z0|e_flag|null|0|dx|dy|dz|0|atom_id
216	 2	 165.0	 30.0	 0.0	 0	 1	 0	 10.0	 0.0	 0.0	 0	 16 #trap id|type|x0|y0|z0|e_flag|null|0|dx|dy|dz|0|atom_id
217	 2	 195.0	 30.0	 0.0	 0	 1	 0	 10.0	 0.0	 0.0	 0	 17 #trap id|type|x0|y0|z0|e_flag|null|0|dx|dy|dz|0|atom_id
218	 2	 225.0	 30.0	 0.0	 0	 1	 0	 10.0	 0.0	 0.0	 0	 18 #trap id|type|x0|y0|z0|e_flag|null|0|dx|dy|dz|0|atom_id
219	 2	 255.0	 30.0	 0.0	 0	 1	 0	 -10.0	 -0.0	 -0.0	 0	 19 #trap id|type|x0|y0|z0|e_flag|null|0|dx|dy|dz|0|atom_id
220	 2	 285.0	 30.0	 0.0	 0	 1	 0	 -10.0	 -0.0	 -0.0	 0	 20 #trap id|type|x0|y0|z0|e_flag|null|0|dx|dy|dz|0|atom_id
221	 2	 15.0	 60.0	 0.0	 0	 1	 0	 -10.0	 -0.0	 -0.0	 0	 21 #trap id|type|x0|y0|z0|e_flag|null|0|dx|dy|dz|0|atom_id