LAMMPS (18 Jun 2019)
### ---preamble--- ###
log ././lammps_files/trj3.log
